# vtk DataFile Version 3.0
2D scalar data
ASCII

DATASET UNSTRUCTURED_GRID
POINTS 139 float
 0.0000000000  0.0000000000  0.0000000000
 0.0650736744  0.0654934846  0.0000000000
 0.0000000000  0.1000000000  0.0000000000
 0.1000000000  0.0000000000  0.0000000000
 0.0799551743  0.1464202922  0.0000000000
 0.1453873146  0.0811573999  0.0000000000
 0.0000000000  0.2000000000  0.0000000000
 0.2000000000  0.0000000000  0.0000000000
 0.1822145150  0.1857504957  0.0000000000
 0.0870157203  0.2463779437  0.0000000000
 0.2450297309  0.0895913606  0.0000000000
 0.0000000000  0.3000000000  0.0000000000
 0.1729105135  0.2974868068  0.0000000000
 0.3000000000  0.0000000000  0.0000000000
 0.2947619109  0.1811844825  0.0000000000
 0.0870220746  0.3488557496  0.0000000000
 0.2504303524  0.2587581336  0.0000000000
 0.3477785255  0.0900348641  0.0000000000
 0.0000000000  0.4000000000  0.0000000000
 0.1738444850  0.3986897701  0.0000000000
 0.2570654779  0.3467910776  0.0000000000
 0.4000000000  0.0000000000  0.0000000000
 0.3453519132  0.2832181792  0.0000000000
 0.3978706068  0.1808427066  0.0000000000
 0.0884481562  0.4505573811  0.0000000000
 0.4490480609  0.0894788145  0.0000000000
 0.2593814570  0.4466641724  0.0000000000
 0.0000000000  0.5000000000  0.0000000000
 0.3408746900  0.3959864535  0.0000000000
 0.1784869445  0.5013589000  0.0000000000
 0.4516984715  0.2648573147  0.0000000000
 0.5000000000  0.0000000000  0.0000000000
 0.4989162048  0.1778658231  0.0000000000
 0.4253964199  0.3552022359  0.0000000000
 0.0914415147  0.5539854102  0.0000000000
 0.3397122701  0.4927474708  0.0000000000
 0.2667719280  0.5431709965  0.0000000000
 0.5498806360  0.0892960504  0.0000000000
 0.0000000000  0.6000000000  0.0000000000
 0.4191515952  0.4507347824  0.0000000000
 0.5453349906  0.2645150601  0.0000000000
 0.1911964362  0.6137129043  0.0000000000
 0.4982068855  0.3291980105  0.0000000000
 0.6000000000  0.0000000000  0.0000000000
 0.6002216489  0.1802286825  0.0000000000
 0.3394967332  0.5709147878  0.0000000000
 0.0904997968  0.6573833712  0.0000000000
 0.4982762700  0.4076379823  0.0000000000
 0.4132982477  0.5467593455  0.0000000000
 0.2925685634  0.6310990784  0.0000000000
 0.6513612992  0.0895463952  0.0000000000
 0.5714973734  0.3548105715  0.0000000000
 0.0000000000  0.7000000000  0.0000000000
 0.6525819339  0.2821738829  0.0000000000
 0.4985599232  0.5046170171  0.0000000000
 0.1729410705  0.7166932345  0.0000000000
 0.2454018378  0.6897086912  0.0000000000
 0.7000000000  0.0000000000  0.0000000000
 0.3853834561  0.6379586126  0.0000000000
 0.7039261257  0.1801310270  0.0000000000
 0.0871955907  0.7588298172  0.0000000000
 0.5784385295  0.4509915287  0.0000000000
 0.4982567448  0.6204489156  0.0000000000
 0.6577166179  0.3953087623  0.0000000000
 0.3269094724  0.7277079609  0.0000000000
 0.7544273148  0.0889719199  0.0000000000
 0.2428420425  0.7568041466  0.0000000000
 0.0000000000  0.8000000000  0.0000000000
 0.7484051328  0.2572713329  0.0000000000
 0.1798952338  0.8216473263  0.0000000000
 0.5853036582  0.5489147346  0.0000000000
 0.7422608632  0.3452011820  0.0000000000
 0.4417799687  0.7269495565  0.0000000000
 0.8000000000  0.0000000000  0.0000000000
 0.6609364519  0.4937806152  0.0000000000
 0.8171489081  0.1846453922  0.0000000000
 0.0794766251  0.8563245973  0.0000000000
 0.2883213905  0.8259924954  0.0000000000
 0.6128266282  0.6443792367  0.0000000000
 0.7420342450  0.4453708323  0.0000000000
 0.5512969114  0.7293924989  0.0000000000
 0.3912325825  0.8213664862  0.0000000000
 0.8543528963  0.0806647315  0.0000000000
 0.8267288464  0.2958888075  0.0000000000
 0.0000000000  0.9000000000  0.0000000000
 0.6640633891  0.5767554093  0.0000000000
 0.1446066302  0.9213128614  0.0000000000
 0.2430729886  0.9137235959  0.0000000000
 0.8270737686  0.3965222997  0.0000000000
 0.4972389440  0.8210804064  0.0000000000
 0.7394334104  0.5441103197  0.0000000000
 0.9000000000  0.0000000000  0.0000000000
 0.9198338461  0.1458928721  0.0000000000
 0.3450823144  0.9123062632  0.0000000000
 0.9127888142  0.2455265819  0.0000000000
 0.6559830421  0.7370044810  0.0000000000
 0.0648435183  0.9355684755  0.0000000000
 0.7226424886  0.6506460463  0.0000000000
 0.8258121711  0.4972890657  0.0000000000
 0.6016385904  0.8230921185  0.0000000000
 0.4472858446  0.9113079245  0.0000000000
 0.9132205332  0.3476230518  0.0000000000
 0.2000000000  1.0000000000  0.0000000000
 0.9348298527  0.0652508279  0.0000000000
 0.3000000000  1.0000000000  0.0000000000
 0.0000000000  1.0000000000  0.0000000000
 0.1000000000  1.0000000000  0.0000000000
 1.0000000000  0.2000000000  0.0000000000
 0.9129703255  0.4484523718  0.0000000000
 0.8219173615  0.5995268890  0.0000000000
 0.5496779030  0.9115158154  0.0000000000
 0.7437355816  0.7468639181  0.0000000000
 0.4000000000  1.0000000000  0.0000000000
 1.0000000000  0.0000000000  0.0000000000
 0.7037590949  0.8249906329  0.0000000000
 1.0000000000  0.1000000000  0.0000000000
 1.0000000000  0.3000000000  0.0000000000
 0.9119285530  0.5494597397  0.0000000000
 0.8209472492  0.7034245646  0.0000000000
 1.0000000000  0.4000000000  0.0000000000
 0.6515699465  0.9121803321  0.0000000000
 0.5000000000  1.0000000000  0.0000000000
 1.0000000000  0.5000000000  0.0000000000
 0.8152771592  0.8167422322  0.0000000000
 0.9109839577  0.6512132125  0.0000000000
 0.6000000000  1.0000000000  0.0000000000
 0.7541120761  0.9123909272  0.0000000000
 1.0000000000  0.6000000000  0.0000000000
 0.9110833387  0.7543630320  0.0000000000
 0.7000000000  1.0000000000  0.0000000000
 0.8538866584  0.9197654216  0.0000000000
 1.0000000000  0.7000000000  0.0000000000
 0.9191674358  0.8543288932  0.0000000000
 0.8000000000  1.0000000000  0.0000000000
 1.0000000000  0.8000000000  0.0000000000
 0.9346238690  0.9348342888  0.0000000000
 0.9000000000  1.0000000000  0.0000000000
 1.0000000000  0.9000000000  0.0000000000
 1.0000000000  1.0000000000  0.0000000000

CELLS 236 944
3 0 1 2
3 0 3 1
3 1 4 2
3 1 3 5
3 1 5 4
3 4 6 2
3 3 7 5
3 4 5 8
3 4 9 6
3 4 8 9
3 7 10 5
3 8 5 10
3 9 11 6
3 12 9 8
3 7 13 10
3 14 8 10
3 15 11 9
3 12 15 9
3 16 12 8
3 16 8 14
3 10 13 17
3 14 10 17
3 18 11 15
3 19 15 12
3 20 12 16
3 17 13 21
3 19 12 20
3 16 14 22
3 14 17 23
3 18 15 24
3 24 15 19
3 20 16 22
3 14 23 22
3 21 25 17
3 23 17 25
3 19 20 26
3 24 27 18
3 28 20 22
3 24 19 29
3 26 29 19
3 28 26 20
3 23 30 22
3 21 31 25
3 23 25 32
3 22 33 28
3 27 24 34
3 23 32 30
3 22 30 33
3 29 34 24
3 35 26 28
3 36 29 26
3 25 31 37
3 32 25 37
3 35 36 26
3 38 27 34
3 39 28 33
3 32 40 30
3 39 35 28
3 41 34 29
3 33 30 42
3 36 41 29
3 37 31 43
3 42 30 40
3 32 37 44
3 32 44 40
3 36 35 45
3 38 34 46
3 39 33 47
3 41 46 34
3 39 48 35
3 33 42 47
3 49 41 36
3 35 48 45
3 43 50 37
3 36 45 49
3 44 37 50
3 42 40 51
3 46 52 38
3 44 53 40
3 42 51 47
3 39 47 54
3 39 54 48
3 46 41 55
3 53 51 40
3 56 41 49
3 43 57 50
3 48 58 45
3 45 58 49
3 56 55 41
3 50 59 44
3 44 59 53
3 60 52 46
3 51 61 47
3 60 46 55
3 47 61 54
3 48 54 62
3 53 63 51
3 48 62 58
3 56 49 64
3 58 64 49
3 50 57 65
3 50 65 59
3 51 63 61
3 66 55 56
3 60 67 52
3 68 53 59
3 60 55 69
3 54 61 70
3 56 64 66
3 54 70 62
3 53 71 63
3 69 55 66
3 62 72 58
3 68 71 53
3 58 72 64
3 65 57 73
3 63 74 61
3 59 65 75
3 75 68 59
3 60 76 67
3 69 76 60
3 61 74 70
3 66 64 77
3 70 78 62
3 69 66 77
3 79 63 71
3 62 80 72
3 63 79 74
3 72 81 64
3 82 65 73
3 78 80 62
3 82 75 65
3 64 81 77
3 68 83 71
3 75 83 68
3 76 84 67
3 70 74 85
3 86 76 69
3 77 87 69
3 70 85 78
3 79 71 88
3 80 89 72
3 71 83 88
3 89 81 72
3 86 69 87
3 74 79 90
3 82 73 91
3 82 92 75
3 85 74 90
3 93 77 81
3 94 83 75
3 78 95 80
3 96 84 76
3 93 87 77
3 96 76 86
3 78 85 97
3 75 92 94
3 88 98 79
3 79 98 90
3 80 99 89
3 78 97 95
3 89 100 81
3 85 90 97
3 83 101 88
3 100 93 81
3 95 99 80
3 86 87 102
3 103 82 91
3 103 92 82
3 94 101 83
3 93 104 87
3 96 105 84
3 86 106 96
3 107 94 92
3 87 104 102
3 86 102 106
3 88 108 98
3 109 97 90
3 88 101 108
3 109 90 98
3 99 110 89
3 89 110 100
3 95 97 111
3 112 93 100
3 103 91 113
3 96 106 105
3 95 114 99
3 112 104 93
3 103 115 92
3 116 101 94
3 92 115 107
3 107 116 94
3 95 111 114
3 98 108 117
3 117 109 98
3 109 118 97
3 111 97 118
3 119 108 101
3 120 110 99
3 103 113 115
3 110 121 100
3 100 121 112
3 114 120 99
3 101 116 119
3 122 117 108
3 111 123 114
3 119 122 108
3 117 124 109
3 109 124 118
3 111 118 123
3 125 110 120
3 125 121 110
3 114 126 120
3 114 123 126
3 117 122 127
3 127 124 117
3 118 128 123
3 118 124 128
3 120 129 125
3 126 129 120
3 123 130 126
3 127 131 124
3 124 131 128
3 132 123 128
3 132 130 123
3 126 133 129
3 126 130 133
3 128 131 134
3 132 128 134
3 135 130 132
3 130 136 133
3 135 136 130
3 132 134 137
3 132 137 135
3 135 138 136
3 135 137 138

CELL_TYPES 236
5
5
5
5
5
5
5
5
5
5
5
5
5
5
5
5
5
5
5
5
5
5
5
5
5
5
5
5
5
5
5
5
5
5
5
5
5
5
5
5
5
5
5
5
5
5
5
5
5
5
5
5
5
5
5
5
5
5
5
5
5
5
5
5
5
5
5
5
5
5
5
5
5
5
5
5
5
5
5
5
5
5
5
5
5
5
5
5
5
5
5
5
5
5
5
5
5
5
5
5
5
5
5
5
5
5
5
5
5
5
5
5
5
5
5
5
5
5
5
5
5
5
5
5
5
5
5
5
5
5
5
5
5
5
5
5
5
5
5
5
5
5
5
5
5
5
5
5
5
5
5
5
5
5
5
5
5
5
5
5
5
5
5
5
5
5
5
5
5
5
5
5
5
5
5
5
5
5
5
5
5
5
5
5
5
5
5
5
5
5
5
5
5
5
5
5
5
5
5
5
5
5
5
5
5
5
5
5
5
5
5
5
5
5
5
5
5
5
5
5
5
5
5
5
5
5
5
5
5
5
5
5
5
5
5
5

POINT_DATA 139
FIELD FieldData 1
nodal 1 139 float
0.0000000000
0.0887156057
0.0000000000
0.0000000000
0.0719339986
0.2019528630
0.0000000000
0.0000000000
0.1589109761
0.0882967924
0.3347691503
0.0000000000
0.1781695834
0.0000000000
0.2684793148
0.0870599871
0.2485016750
0.4602235319
0.0000000000
0.1731514226
0.2600705065
0.0000000000
0.3488447821
0.3668938039
0.0883889748
0.5874126956
0.2586416423
0.0000000000
0.3421842080
0.1787992501
0.4513439828
0.0000000000
0.4669525674
0.4283611378
0.0914889423
0.3388396303
0.2665066457
0.7075082669
0.0000000000
0.4189241303
0.5453463807
0.1899785533
0.5005092717
0.0000000000
0.5651343684
0.3392559919
0.0902653545
0.4995179660
0.4127043561
0.2923936339
0.8300425557
0.5737564314
0.0000000000
0.6539574063
0.4977273361
0.1782338477
0.2501692239
0.0000000000
0.3855573235
0.6748694804
0.0889451641
0.5786229966
0.4981727942
0.6594749877
0.3337787479
0.9297535428
0.2395722331
0.0000000000
0.7405285309
0.1580557160
0.5841920915
0.7448965180
0.4495946896
0.0000000000
0.6602664290
0.8083886125
0.0721531423
0.2592670037
0.6149676929
0.7421688307
0.5579699966
0.3533131756
0.9513898343
0.8158085256
0.0000000000
0.6636233499
0.1930408852
0.3206293211
0.8257882900
0.4541041927
0.7382394584
0.0000000000
0.9171805179
0.4541010114
0.8555535982
0.6576150861
0.0843139840
0.7252354392
0.8229955907
0.5580677772
0.5806741347
0.8196346091
0.0000000000
0.6357336573
0.0000000000
0.0000000000
0.0000000000
0.0000000000
0.8945774666
0.8168030721
0.7096721584
0.7390887504
0.0000000000
0.0000000000
0.6670857505
0.0000000000
0.0000000000
0.8286057580
0.8141869565
0.0000000000
0.8262963651
0.0000000000
0.0000000000
0.7879236110
0.8354579877
0.0000000000
0.9293153903
0.0000000000
0.8240685376
0.0000000000
0.9653404640
0.0000000000
0.8310105160
0.0000000000
0.0000000000
0.6872727746
0.0000000000
0.0000000000
0.0000000000
